Trajectory
           1
     5.500500   -0.000000    0.000000
    -0.000000   11.128000   -0.000000
     0.000000   -0.000000   31.017599
 Na  Nb  O   Na  Nb  O   Na  Nb  O   Na  Nb  O  
   8   8  24   8   8  24   8   8  24   8   8  24
Direct configuration=     1
  0.72681403  0.37500000  0.00000000
  0.72681403  0.37500000  0.25000000
  0.27318600  0.12500000  0.00000000
  0.27318600  0.12500000  0.25000000
  0.73505998  0.35772401  0.12500000
  0.73505998  0.39227599  0.37500000
  0.26493999  0.10772400  0.12500000
  0.26493999  0.14227599  0.37500000
  0.75563902  0.11607850  0.06250000
  0.75563902  0.13392150  0.31250000
  0.24436100  0.36607850  0.18750000
  0.24436100  0.38392150  0.43750000
  0.24436100  0.36607850  0.06250000
  0.24436100  0.38392150  0.31250000
  0.75563902  0.11607850  0.18750000
  0.75563902  0.13392150  0.43750000
  0.68832499  0.12500000  0.00000000
  0.68832499  0.12500000  0.25000000
  0.31167501  0.37500000  0.00000000
  0.31167501  0.37500000  0.25000000
  0.81711799  0.13483950  0.12500000
  0.81711799  0.11516050  0.37500000
  0.18288200  0.38483951  0.12500000
  0.18288200  0.36516049  0.37500000
  0.96746802  0.27428150  0.05439500
  0.03253200  0.22571850  0.30439499
  0.46855500  0.23924699  0.18018851
  0.53144503  0.26075300  0.43018851
  0.46855500  0.23924699  0.06981150
  0.53144503  0.26075300  0.31981150
  0.96746802  0.27428150  0.19560500
  0.03253200  0.22571850  0.44560501
  0.03253200  0.02428150  0.05439500
  0.96746802  0.97571850  0.30439499
  0.53144503  0.48924700  0.18018851
  0.46855500  0.51075300  0.43018850
  0.53144503  0.48924700  0.06981150
  0.46855500  0.51075300  0.31981150
  0.03253200  0.02428150  0.19560500
  0.96746802  0.97571850  0.44560501
  0.63591321  0.37500000  0.50000000
  0.72681403  0.37500000  0.75000000
  0.27318600  0.12500000  0.50000000
  0.27318600  0.12500000  0.75000000
  0.73505998  0.35772401  0.62500000
  0.73505998  0.39227599  0.87500000
  0.26493999  0.10772400  0.62500000
  0.26493999  0.14227599  0.87500000
  0.75563902  0.11607850  0.56250000
  0.75563902  0.13392150  0.81250000
  0.24436100  0.36607850  0.68750000
  0.24436100  0.38392151  0.93750000
  0.24436100  0.36607850  0.56250000
  0.24436100  0.38392150  0.81250000
  0.75563902  0.11607850  0.68750000
  0.75563902  0.13392150  0.93750000
  0.68832499  0.12500000  0.50000000
  0.68832499  0.12500000  0.75000000
  0.31167501  0.37500000  0.50000000
  0.31167501  0.37500000  0.75000000
  0.81711799  0.13483950  0.62500000
  0.81711799  0.11516050  0.87500000
  0.18288200  0.38483951  0.62500000
  0.18288200  0.36516050  0.87500000
  0.96746802  0.27428150  0.55439500
  0.03253200  0.22571850  0.80439499
  0.46855500  0.23924699  0.68018851
  0.53144503  0.26075300  0.93018851
  0.46855500  0.23924699  0.56981150
  0.53144503  0.26075300  0.81981149
  0.96746802  0.27428150  0.69560500
  0.03253200  0.22571850  0.94560501
  0.03253200  0.02428150  0.55439500
  0.96746802  0.97571850  0.80439499
  0.53144503  0.48924700  0.68018851
  0.46855500  0.51075300  0.93018850
  0.53144503  0.48924700  0.56981150
  0.46855500  0.51075300  0.81981149
  0.03253200  0.02428150  0.69560500
  0.96746802  0.97571850  0.94560501
  0.72681403  0.87500000  0.00000000
  0.72681403  0.87500000  0.25000000
  0.27318600  0.62500000  0.00000000
  0.27318600  0.62500000  0.25000000
  0.73505998  0.85772401  0.12500000
  0.73505998  0.89227599  0.37500000
  0.26493999  0.60772400  0.12500000
  0.26493999  0.64227599  0.37500000
  0.75563902  0.61607850  0.06250000
  0.75563902  0.63392150  0.31250000
  0.24436100  0.86607849  0.18750000
  0.24436100  0.88392150  0.43750000
  0.24436100  0.86607850  0.06250000
  0.24436100  0.88392150  0.31250000
  0.75563902  0.61607850  0.18750000
  0.75563902  0.63392150  0.43750000
  0.68832499  0.62500000  0.00000000
  0.68832499  0.62500000  0.25000000
  0.31167501  0.87500000  0.00000000
  0.31167501  0.87500000  0.25000000
  0.81711799  0.63483950  0.12500000
  0.81711799  0.61516049  0.37500000
  0.18288200  0.88483951  0.12500000
  0.18288200  0.86516050  0.37500000
  0.96746802  0.77428150  0.05439500
  0.03253200  0.72571850  0.30439499
  0.46855500  0.73924699  0.18018851
  0.53144503  0.76075300  0.43018851
  0.46855500  0.73924700  0.06981150
  0.53144503  0.76075300  0.31981150
  0.96746802  0.77428150  0.19560500
  0.03253200  0.72571850  0.44560501
  0.03253200  0.52428150  0.05439500
  0.96746802  0.47571850  0.30439499
  0.53144503  0.98924699  0.18018851
  0.46855500  0.01075300  0.43018850
  0.53144503  0.98924700  0.06981150
  0.46855500  0.01075300  0.31981150
  0.03253200  0.52428150  0.19560500
  0.96746802  0.47571850  0.44560501
  0.72681403  0.87500000  0.50000000
  0.72681403  0.87500000  0.75000000
  0.27318600  0.62500000  0.50000000
  0.27318600  0.62500000  0.75000000
  0.73505998  0.85772401  0.62500000
  0.73505998  0.89227599  0.87500000
  0.26493999  0.60772401  0.62500000
  0.26493999  0.64227599  0.87500000
  0.75563902  0.61607850  0.56250000
  0.75563902  0.63392150  0.81250000
  0.24436100  0.86607850  0.68750000
  0.24436100  0.88392150  0.93750000
  0.24436100  0.86607850  0.56250000
  0.24436100  0.88392150  0.81250000
  0.75563902  0.61607850  0.68750000
  0.75563902  0.63392150  0.93750000
  0.68832499  0.62500000  0.50000000
  0.68832499  0.62500000  0.75000000
  0.31167501  0.87500000  0.50000000
  0.31167501  0.87500000  0.75000000
  0.81711799  0.63483950  0.62500000
  0.81711799  0.61516050  0.87500000
  0.18288200  0.88483951  0.62500000
  0.18288200  0.86516050  0.87500000
  0.96746802  0.77428150  0.55439500
  0.03253200  0.72571850  0.80439499
  0.46855500  0.73924700  0.68018851
  0.53144503  0.76075300  0.93018851
  0.46855500  0.73924700  0.56981150
  0.53144503  0.76075300  0.81981149
  0.96746802  0.77428150  0.69560500
  0.03253200  0.72571850  0.94560501
  0.03253200  0.52428150  0.55439500
  0.96746802  0.47571850  0.80439499
  0.53144503  0.98924700  0.68018851
  0.46855500  0.01075300  0.93018850
  0.53144503  0.98924700  0.56981150
  0.46855500  0.01075300  0.81981149
  0.03253200  0.52428150  0.69560500
  0.96746802  0.47571850  0.94560501
Direct configuration=     2
  0.72966788  0.37500000  0.00000000
  0.72681403  0.37500000  0.25000000
  0.27318600  0.12500000  0.00101268
  0.27318600  0.12605863  0.25050634
  0.73505998  0.35772401  0.12500000
  0.73505998  0.39227599  0.37601268
  0.26493999  0.10878264  0.12550634
  0.26493999  0.14227599  0.37601268
  0.75563902  0.11607850  0.06250000
  0.75563902  0.13392150  0.31250000
  0.24436100  0.36607850  0.18750000
  0.24436100  0.38392150  0.43750000
  0.24436100  0.36607850  0.06250000
  0.24436100  0.38392150  0.31250000
  0.75563902  0.11607850  0.18750000
  0.75563902  0.13392150  0.43750000
  0.68832499  0.12500000  0.00000000
  0.68832499  0.12500000  0.25000000
  0.31167501  0.37500000  0.00000000
  0.31167501  0.37500000  0.25000000
  0.81711799  0.13483950  0.12500000
  0.81711799  0.11516050  0.37500000
  0.18288200  0.38483951  0.12500000
  0.18288200  0.36516049  0.37500000
  0.96746802  0.27428150  0.05439500
  0.03253200  0.22571850  0.30439499
  0.46855500  0.23924699  0.18018851
  0.53144503  0.26075300  0.43018851
  0.46855500  0.23924699  0.06981150
  0.53144503  0.26075300  0.31981150
  0.96746802  0.27428150  0.19560500
  0.03253200  0.22571850  0.44560501
  0.03253200  0.02428150  0.05439500
  0.96746802  0.97571850  0.30439499
  0.53144503  0.48924700  0.18018851
  0.46855500  0.51075300  0.43018850
  0.53144503  0.48924700  0.06981150
  0.46855500  0.51075300  0.31981150
  0.03253200  0.02428150  0.19560500
  0.96746802  0.97571850  0.44560501
  0.63609258  0.37500000  0.50000000
  0.72681403  0.37500000  0.75000000
  0.27318600  0.12500000  0.50101268
  0.27318600  0.12605863  0.75050634
  0.73505998  0.35772401  0.62500000
  0.73505998  0.39227599  0.87601268
  0.26493999  0.10878264  0.62550634
  0.26493999  0.14227599  0.87601268
  0.75563902  0.11607850  0.56250000
  0.75563902  0.13392150  0.81250000
  0.24436100  0.36607850  0.68750000
  0.24436100  0.38392151  0.93750000
  0.24436100  0.36607850  0.56250000
  0.24436100  0.38392150  0.81250000
  0.75563902  0.11607850  0.68750000
  0.75563902  0.13392150  0.93750000
  0.68832499  0.12500000  0.50000000
  0.68832499  0.12500000  0.75000000
  0.31167501  0.37500000  0.50000000
  0.31167501  0.37500000  0.75000000
  0.81711799  0.13483950  0.62500000
  0.81711799  0.11516050  0.87500000
  0.18288200  0.38483951  0.62500000
  0.18288200  0.36516050  0.87500000
  0.96746802  0.27428150  0.55439500
  0.03253200  0.22571850  0.80439499
  0.46855500  0.23924699  0.68018851
  0.53144503  0.26075300  0.93018851
  0.46855500  0.23924699  0.56981150
  0.53144503  0.26075300  0.81981149
  0.96746802  0.27428150  0.69560500
  0.03253200  0.22571850  0.94560501
  0.03253200  0.02428150  0.55439500
  0.96746802  0.97571850  0.80439499
  0.53144503  0.48924700  0.68018851
  0.46855500  0.51075300  0.93018850
  0.53144503  0.48924700  0.56981150
  0.46855500  0.51075300  0.81981149
  0.03253200  0.02428150  0.69560500
  0.96746802  0.97571850  0.94560501
  0.72966788  0.87500000  0.00000000
  0.72681403  0.87500000  0.25000000
  0.27318600  0.62500000  0.00101268
  0.27318600  0.62605863  0.24949366
  0.73505998  0.85772401  0.12500000
  0.73505998  0.89227599  0.37601268
  0.26493999  0.60878264  0.12449366
  0.26493999  0.64227599  0.37601268
  0.75563902  0.61607850  0.06250000
  0.75563902  0.63392150  0.31250000
  0.24436100  0.86607849  0.18750000
  0.24436100  0.88392150  0.43750000
  0.24436100  0.86607850  0.06250000
  0.24436100  0.88392150  0.31250000
  0.75563902  0.61607850  0.18750000
  0.75563902  0.63392150  0.43750000
  0.68832499  0.62500000  0.00000000
  0.68832499  0.62500000  0.25000000
  0.31167501  0.87500000  0.00000000
  0.31167501  0.87500000  0.25000000
  0.81711799  0.63483950  0.12500000
  0.81711799  0.61516049  0.37500000
  0.18288200  0.88483951  0.12500000
  0.18288200  0.86516050  0.37500000
  0.96746802  0.77428150  0.05439500
  0.03253200  0.72571850  0.30439499
  0.46855500  0.73924699  0.18018851
  0.53144503  0.76075300  0.43018851
  0.46855500  0.73924700  0.06981150
  0.53144503  0.76075300  0.31981150
  0.96746802  0.77428150  0.19560500
  0.03253200  0.72571850  0.44560501
  0.03253200  0.52428150  0.05439500
  0.96746802  0.47571850  0.30439499
  0.53144503  0.98924699  0.18018851
  0.46855500  0.01075300  0.43018850
  0.53144503  0.98924700  0.06981150
  0.46855500  0.01075300  0.31981150
  0.03253200  0.52428150  0.19560500
  0.96746802  0.47571850  0.44560501
  0.72966788  0.87500000  0.50000000
  0.72681403  0.87500000  0.75000000
  0.27318600  0.62500000  0.50101268
  0.27318600  0.62605863  0.75050634
  0.73505998  0.85772401  0.62500000
  0.73505998  0.89227599  0.87601268
  0.26493999  0.60878264  0.62550634
  0.26493999  0.64227599  0.87601268
  0.75563902  0.61607850  0.56250000
  0.75563902  0.63392150  0.81250000
  0.24436100  0.86607850  0.68750000
  0.24436100  0.88392150  0.93750000
  0.24436100  0.86607850  0.56250000
  0.24436100  0.88392150  0.81250000
  0.75563902  0.61607850  0.68750000
  0.75563902  0.63392150  0.93750000
  0.68832499  0.62500000  0.50000000
  0.68832499  0.62500000  0.75000000
  0.31167501  0.87500000  0.50000000
  0.31167501  0.87500000  0.75000000
  0.81711799  0.63483950  0.62500000
  0.81711799  0.61516050  0.87500000
  0.18288200  0.88483951  0.62500000
  0.18288200  0.86516050  0.87500000
  0.96746802  0.77428150  0.55439500
  0.03253200  0.72571850  0.80439499
  0.46855500  0.73924700  0.68018851
  0.53144503  0.76075300  0.93018851
  0.46855500  0.73924700  0.56981150
  0.53144503  0.76075300  0.81981149
  0.96746802  0.77428150  0.69560500
  0.03253200  0.72571850  0.94560501
  0.03253200  0.52428150  0.55439500
  0.96746802  0.47571850  0.80439499
  0.53144503  0.98924700  0.68018851
  0.46855500  0.01075300  0.93018850
  0.53144503  0.98924700  0.56981150
  0.46855500  0.01075300  0.81981149
  0.03253200  0.52428150  0.69560500
  0.96746802  0.47571850  0.94560501
Direct configuration=     3
  0.73251048  0.37500000  0.00000000
  0.72681403  0.37500000  0.25000000
  0.27318600  0.12500000  0.00202435
  0.27318600  0.12711701  0.25101218
  0.73505998  0.35772401  0.12500000
  0.73505998  0.39227599  0.37702435
  0.26493999  0.10984101  0.12601218
  0.26493999  0.14227599  0.37702435
  0.75563902  0.11607850  0.06250000
  0.75563902  0.13392150  0.31250000
  0.24436100  0.36607850  0.18750000
  0.24436100  0.38392150  0.43750000
  0.24436100  0.36607850  0.06250000
  0.24436100  0.38392150  0.31250000
  0.75563902  0.11607850  0.18750000
  0.75563902  0.13392150  0.43750000
  0.68832499  0.12500000  0.00000000
  0.68832499  0.12500000  0.25000000
  0.31167501  0.37500000  0.00000000
  0.31167501  0.37500000  0.25000000
  0.81711799  0.13483950  0.12500000
  0.81711799  0.11516050  0.37500000
  0.18288200  0.38483951  0.12500000
  0.18288200  0.36516049  0.37500000
  0.96746802  0.27428150  0.05439500
  0.03253200  0.22571850  0.30439499
  0.46855500  0.23924699  0.18018851
  0.53144503  0.26075300  0.43018851
  0.46855500  0.23924699  0.06981150
  0.53144503  0.26075300  0.31981150
  0.96746802  0.27428150  0.19560500
  0.03253200  0.22571850  0.44560501
  0.03253200  0.02428150  0.05439500
  0.96746802  0.97571850  0.30439499
  0.53144503  0.48924700  0.18018851
  0.46855500  0.51075300  0.43018850
  0.53144503  0.48924700  0.06981150
  0.46855500  0.51075300  0.31981150
  0.03253200  0.02428150  0.19560500
  0.96746802  0.97571850  0.44560501
  0.63662999  0.37500000  0.50000000
  0.72681403  0.37500000  0.75000000
  0.27318600  0.12500000  0.50202435
  0.27318600  0.12711701  0.75101218
  0.73505998  0.35772401  0.62500000
  0.73505998  0.39227599  0.87702435
  0.26493999  0.10984101  0.62601218
  0.26493999  0.14227599  0.87702435
  0.75563902  0.11607850  0.56250000
  0.75563902  0.13392150  0.81250000
  0.24436100  0.36607850  0.68750000
  0.24436100  0.38392151  0.93750000
  0.24436100  0.36607850  0.56250000
  0.24436100  0.38392150  0.81250000
  0.75563902  0.11607850  0.68750000
  0.75563902  0.13392150  0.93750000
  0.68832499  0.12500000  0.50000000
  0.68832499  0.12500000  0.75000000
  0.31167501  0.37500000  0.50000000
  0.31167501  0.37500000  0.75000000
  0.81711799  0.13483950  0.62500000
  0.81711799  0.11516050  0.87500000
  0.18288200  0.38483951  0.62500000
  0.18288200  0.36516050  0.87500000
  0.96746802  0.27428150  0.55439500
  0.03253200  0.22571850  0.80439499
  0.46855500  0.23924699  0.68018851
  0.53144503  0.26075300  0.93018851
  0.46855500  0.23924699  0.56981150
  0.53144503  0.26075300  0.81981149
  0.96746802  0.27428150  0.69560500
  0.03253200  0.22571850  0.94560501
  0.03253200  0.02428150  0.55439500
  0.96746802  0.97571850  0.80439499
  0.53144503  0.48924700  0.68018851
  0.46855500  0.51075300  0.93018850
  0.53144503  0.48924700  0.56981150
  0.46855500  0.51075300  0.81981149
  0.03253200  0.02428150  0.69560500
  0.96746802  0.97571850  0.94560501
  0.73251048  0.87500000  0.00000000
  0.72681403  0.87500000  0.25000000
  0.27318600  0.62500000  0.00202435
  0.27318600  0.62711701  0.24898782
  0.73505998  0.85772401  0.12500000
  0.73505998  0.89227599  0.37702435
  0.26493999  0.60984101  0.12398782
  0.26493999  0.64227599  0.37702435
  0.75563902  0.61607850  0.06250000
  0.75563902  0.63392150  0.31250000
  0.24436100  0.86607849  0.18750000
  0.24436100  0.88392150  0.43750000
  0.24436100  0.86607850  0.06250000
  0.24436100  0.88392150  0.31250000
  0.75563902  0.61607850  0.18750000
  0.75563902  0.63392150  0.43750000
  0.68832499  0.62500000  0.00000000
  0.68832499  0.62500000  0.25000000
  0.31167501  0.87500000  0.00000000
  0.31167501  0.87500000  0.25000000
  0.81711799  0.63483950  0.12500000
  0.81711799  0.61516049  0.37500000
  0.18288200  0.88483951  0.12500000
  0.18288200  0.86516050  0.37500000
  0.96746802  0.77428150  0.05439500
  0.03253200  0.72571850  0.30439499
  0.46855500  0.73924699  0.18018851
  0.53144503  0.76075300  0.43018851
  0.46855500  0.73924700  0.06981150
  0.53144503  0.76075300  0.31981150
  0.96746802  0.77428150  0.19560500
  0.03253200  0.72571850  0.44560501
  0.03253200  0.52428150  0.05439500
  0.96746802  0.47571850  0.30439499
  0.53144503  0.98924699  0.18018851
  0.46855500  0.01075300  0.43018850
  0.53144503  0.98924700  0.06981150
  0.46855500  0.01075300  0.31981150
  0.03253200  0.52428150  0.19560500
  0.96746802  0.47571850  0.44560501
  0.73251048  0.87500000  0.50000000
  0.72681403  0.87500000  0.75000000
  0.27318600  0.62500000  0.50202435
  0.27318600  0.62711701  0.75101218
  0.73505998  0.85772401  0.62500000
  0.73505998  0.89227599  0.87702435
  0.26493999  0.60984101  0.62601218
  0.26493999  0.64227599  0.87702435
  0.75563902  0.61607850  0.56250000
  0.75563902  0.63392150  0.81250000
  0.24436100  0.86607850  0.68750000
  0.24436100  0.88392150  0.93750000
  0.24436100  0.86607850  0.56250000
  0.24436100  0.88392150  0.81250000
  0.75563902  0.61607850  0.68750000
  0.75563902  0.63392150  0.93750000
  0.68832499  0.62500000  0.50000000
  0.68832499  0.62500000  0.75000000
  0.31167501  0.87500000  0.50000000
  0.31167501  0.87500000  0.75000000
  0.81711799  0.63483950  0.62500000
  0.81711799  0.61516050  0.87500000
  0.18288200  0.88483951  0.62500000
  0.18288200  0.86516050  0.87500000
  0.96746802  0.77428150  0.55439500
  0.03253200  0.72571850  0.80439499
  0.46855500  0.73924700  0.68018851
  0.53144503  0.76075300  0.93018851
  0.46855500  0.73924700  0.56981150
  0.53144503  0.76075300  0.81981149
  0.96746802  0.77428150  0.69560500
  0.03253200  0.72571850  0.94560501
  0.03253200  0.52428150  0.55439500
  0.96746802  0.47571850  0.80439499
  0.53144503  0.98924700  0.68018851
  0.46855500  0.01075300  0.93018850
  0.53144503  0.98924700  0.56981150
  0.46855500  0.01075300  0.81981149
  0.03253200  0.52428150  0.69560500
  0.96746802  0.47571850  0.94560501
Direct configuration=     4
  0.73533059  0.37500000  0.00000000
  0.72681403  0.37500000  0.25000000
  0.27318600  0.12500000  0.00303403
  0.27318600  0.12817486  0.25151701
  0.73505998  0.35772401  0.12500000
  0.73505998  0.39227599  0.37803403
  0.26493999  0.11089886  0.12651701
  0.26493999  0.14227599  0.37803403
  0.75563902  0.11607850  0.06250000
  0.75563902  0.13392150  0.31250000
  0.24436100  0.36607850  0.18750000
  0.24436100  0.38392150  0.43750000
  0.24436100  0.36607850  0.06250000
  0.24436100  0.38392150  0.31250000
  0.75563902  0.11607850  0.18750000
  0.75563902  0.13392150  0.43750000
  0.68832499  0.12500000  0.00000000
  0.68832499  0.12500000  0.25000000
  0.31167501  0.37500000  0.00000000
  0.31167501  0.37500000  0.25000000
  0.81711799  0.13483950  0.12500000
  0.81711799  0.11516050  0.37500000
  0.18288200  0.38483951  0.12500000
  0.18288200  0.36516049  0.37500000
  0.96746802  0.27428150  0.05439500
  0.03253200  0.22571850  0.30439499
  0.46855500  0.23924699  0.18018851
  0.53144503  0.26075300  0.43018851
  0.46855500  0.23924699  0.06981150
  0.53144503  0.26075300  0.31981150
  0.96746802  0.27428150  0.19560500
  0.03253200  0.22571850  0.44560501
  0.03253200  0.02428150  0.05439500
  0.96746802  0.97571850  0.30439499
  0.53144503  0.48924700  0.18018851
  0.46855500  0.51075300  0.43018850
  0.53144503  0.48924700  0.06981150
  0.46855500  0.51075300  0.31981150
  0.03253200  0.02428150  0.19560500
  0.96746802  0.97571850  0.44560501
  0.63752331  0.37500000  0.50000000
  0.72681403  0.37500000  0.75000000
  0.27318600  0.12500000  0.50303403
  0.27318600  0.12817486  0.75151701
  0.73505998  0.35772401  0.62500000
  0.73505998  0.39227599  0.87803403
  0.26493999  0.11089886  0.62651701
  0.26493999  0.14227599  0.87803403
  0.75563902  0.11607850  0.56250000
  0.75563902  0.13392150  0.81250000
  0.24436100  0.36607850  0.68750000
  0.24436100  0.38392151  0.93750000
  0.24436100  0.36607850  0.56250000
  0.24436100  0.38392150  0.81250000
  0.75563902  0.11607850  0.68750000
  0.75563902  0.13392150  0.93750000
  0.68832499  0.12500000  0.50000000
  0.68832499  0.12500000  0.75000000
  0.31167501  0.37500000  0.50000000
  0.31167501  0.37500000  0.75000000
  0.81711799  0.13483950  0.62500000
  0.81711799  0.11516050  0.87500000
  0.18288200  0.38483951  0.62500000
  0.18288200  0.36516050  0.87500000
  0.96746802  0.27428150  0.55439500
  0.03253200  0.22571850  0.80439499
  0.46855500  0.23924699  0.68018851
  0.53144503  0.26075300  0.93018851
  0.46855500  0.23924699  0.56981150
  0.53144503  0.26075300  0.81981149
  0.96746802  0.27428150  0.69560500
  0.03253200  0.22571850  0.94560501
  0.03253200  0.02428150  0.55439500
  0.96746802  0.97571850  0.80439499
  0.53144503  0.48924700  0.68018851
  0.46855500  0.51075300  0.93018850
  0.53144503  0.48924700  0.56981150
  0.46855500  0.51075300  0.81981149
  0.03253200  0.02428150  0.69560500
  0.96746802  0.97571850  0.94560501
  0.73533059  0.87500000  0.00000000
  0.72681403  0.87500000  0.25000000
  0.27318600  0.62500000  0.00303403
  0.27318600  0.62817486  0.24848299
  0.73505998  0.85772401  0.12500000
  0.73505998  0.89227599  0.37803403
  0.26493999  0.61089886  0.12348299
  0.26493999  0.64227599  0.37803403
  0.75563902  0.61607850  0.06250000
  0.75563902  0.63392150  0.31250000
  0.24436100  0.86607849  0.18750000
  0.24436100  0.88392150  0.43750000
  0.24436100  0.86607850  0.06250000
  0.24436100  0.88392150  0.31250000
  0.75563902  0.61607850  0.18750000
  0.75563902  0.63392150  0.43750000
  0.68832499  0.62500000  0.00000000
  0.68832499  0.62500000  0.25000000
  0.31167501  0.87500000  0.00000000
  0.31167501  0.87500000  0.25000000
  0.81711799  0.63483950  0.12500000
  0.81711799  0.61516049  0.37500000
  0.18288200  0.88483951  0.12500000
  0.18288200  0.86516050  0.37500000
  0.96746802  0.77428150  0.05439500
  0.03253200  0.72571850  0.30439499
  0.46855500  0.73924699  0.18018851
  0.53144503  0.76075300  0.43018851
  0.46855500  0.73924700  0.06981150
  0.53144503  0.76075300  0.31981150
  0.96746802  0.77428150  0.19560500
  0.03253200  0.72571850  0.44560501
  0.03253200  0.52428150  0.05439500
  0.96746802  0.47571850  0.30439499
  0.53144503  0.98924699  0.18018851
  0.46855500  0.01075300  0.43018850
  0.53144503  0.98924700  0.06981150
  0.46855500  0.01075300  0.31981150
  0.03253200  0.52428150  0.19560500
  0.96746802  0.47571850  0.44560501
  0.73533059  0.87500000  0.50000000
  0.72681403  0.87500000  0.75000000
  0.27318600  0.62500000  0.50303403
  0.27318600  0.62817486  0.75151701
  0.73505998  0.85772401  0.62500000
  0.73505998  0.89227599  0.87803403
  0.26493999  0.61089886  0.62651701
  0.26493999  0.64227599  0.87803403
  0.75563902  0.61607850  0.56250000
  0.75563902  0.63392150  0.81250000
  0.24436100  0.86607850  0.68750000
  0.24436100  0.88392150  0.93750000
  0.24436100  0.86607850  0.56250000
  0.24436100  0.88392150  0.81250000
  0.75563902  0.61607850  0.68750000
  0.75563902  0.63392150  0.93750000
  0.68832499  0.62500000  0.50000000
  0.68832499  0.62500000  0.75000000
  0.31167501  0.87500000  0.50000000
  0.31167501  0.87500000  0.75000000
  0.81711799  0.63483950  0.62500000
  0.81711799  0.61516050  0.87500000
  0.18288200  0.88483951  0.62500000
  0.18288200  0.86516050  0.87500000
  0.96746802  0.77428150  0.55439500
  0.03253200  0.72571850  0.80439499
  0.46855500  0.73924700  0.68018851
  0.53144503  0.76075300  0.93018851
  0.46855500  0.73924700  0.56981150
  0.53144503  0.76075300  0.81981149
  0.96746802  0.77428150  0.69560500
  0.03253200  0.72571850  0.94560501
  0.03253200  0.52428150  0.55439500
  0.96746802  0.47571850  0.80439499
  0.53144503  0.98924700  0.68018851
  0.46855500  0.01075300  0.93018850
  0.53144503  0.98924700  0.56981150
  0.46855500  0.01075300  0.81981149
  0.03253200  0.52428150  0.69560500
  0.96746802  0.47571850  0.94560501
Direct configuration=     5
  0.73811709  0.37500000  0.00000000
  0.72681403  0.37500000  0.25000000
  0.27318600  0.12500000  0.00404071
  0.27318600  0.12923193  0.25202036
  0.73505998  0.35772401  0.12500000
  0.73505998  0.39227599  0.37904071
  0.26493999  0.11195593  0.12702036
  0.26493999  0.14227599  0.37904071
  0.75563902  0.11607850  0.06250000
  0.75563902  0.13392150  0.31250000
  0.24436100  0.36607850  0.18750000
  0.24436100  0.38392150  0.43750000
  0.24436100  0.36607850  0.06250000
  0.24436100  0.38392150  0.31250000
  0.75563902  0.11607850  0.18750000
  0.75563902  0.13392150  0.43750000
  0.68832499  0.12500000  0.00000000
  0.68832499  0.12500000  0.25000000
  0.31167501  0.37500000  0.00000000
  0.31167501  0.37500000  0.25000000
  0.81711799  0.13483950  0.12500000
  0.81711799  0.11516050  0.37500000
  0.18288200  0.38483951  0.12500000
  0.18288200  0.36516049  0.37500000
  0.96746802  0.27428150  0.05439500
  0.03253200  0.22571850  0.30439499
  0.46855500  0.23924699  0.18018851
  0.53144503  0.26075300  0.43018851
  0.46855500  0.23924699  0.06981150
  0.53144503  0.26075300  0.31981150
  0.96746802  0.27428150  0.19560500
  0.03253200  0.22571850  0.44560501
  0.03253200  0.02428150  0.05439500
  0.96746802  0.97571850  0.30439499
  0.53144503  0.48924700  0.18018851
  0.46855500  0.51075300  0.43018850
  0.53144503  0.48924700  0.06981150
  0.46855500  0.51075300  0.31981150
  0.03253200  0.02428150  0.19560500
  0.96746802  0.97571850  0.44560501
  0.63876902  0.37500000  0.50000000
  0.72681403  0.37500000  0.75000000
  0.27318600  0.12500000  0.50404071
  0.27318600  0.12923193  0.75202036
  0.73505998  0.35772401  0.62500000
  0.73505998  0.39227599  0.87904071
  0.26493999  0.11195593  0.62702036
  0.26493999  0.14227599  0.87904071
  0.75563902  0.11607850  0.56250000
  0.75563902  0.13392150  0.81250000
  0.24436100  0.36607850  0.68750000
  0.24436100  0.38392151  0.93750000
  0.24436100  0.36607850  0.56250000
  0.24436100  0.38392150  0.81250000
  0.75563902  0.11607850  0.68750000
  0.75563902  0.13392150  0.93750000
  0.68832499  0.12500000  0.50000000
  0.68832499  0.12500000  0.75000000
  0.31167501  0.37500000  0.50000000
  0.31167501  0.37500000  0.75000000
  0.81711799  0.13483950  0.62500000
  0.81711799  0.11516050  0.87500000
  0.18288200  0.38483951  0.62500000
  0.18288200  0.36516050  0.87500000
  0.96746802  0.27428150  0.55439500
  0.03253200  0.22571850  0.80439499
  0.46855500  0.23924699  0.68018851
  0.53144503  0.26075300  0.93018851
  0.46855500  0.23924699  0.56981150
  0.53144503  0.26075300  0.81981149
  0.96746802  0.27428150  0.69560500
  0.03253200  0.22571850  0.94560501
  0.03253200  0.02428150  0.55439500
  0.96746802  0.97571850  0.80439499
  0.53144503  0.48924700  0.68018851
  0.46855500  0.51075300  0.93018850
  0.53144503  0.48924700  0.56981150
  0.46855500  0.51075300  0.81981149
  0.03253200  0.02428150  0.69560500
  0.96746802  0.97571850  0.94560501
  0.73811709  0.87500000  0.00000000
  0.72681403  0.87500000  0.25000000
  0.27318600  0.62500000  0.00404071
  0.27318600  0.62923193  0.24797964
  0.73505998  0.85772401  0.12500000
  0.73505998  0.89227599  0.37904071
  0.26493999  0.61195593  0.12297964
  0.26493999  0.64227599  0.37904071
  0.75563902  0.61607850  0.06250000
  0.75563902  0.63392150  0.31250000
  0.24436100  0.86607849  0.18750000
  0.24436100  0.88392150  0.43750000
  0.24436100  0.86607850  0.06250000
  0.24436100  0.88392150  0.31250000
  0.75563902  0.61607850  0.18750000
  0.75563902  0.63392150  0.43750000
  0.68832499  0.62500000  0.00000000
  0.68832499  0.62500000  0.25000000
  0.31167501  0.87500000  0.00000000
  0.31167501  0.87500000  0.25000000
  0.81711799  0.63483950  0.12500000
  0.81711799  0.61516049  0.37500000
  0.18288200  0.88483951  0.12500000
  0.18288200  0.86516050  0.37500000
  0.96746802  0.77428150  0.05439500
  0.03253200  0.72571850  0.30439499
  0.46855500  0.73924699  0.18018851
  0.53144503  0.76075300  0.43018851
  0.46855500  0.73924700  0.06981150
  0.53144503  0.76075300  0.31981150
  0.96746802  0.77428150  0.19560500
  0.03253200  0.72571850  0.44560501
  0.03253200  0.52428150  0.05439500
  0.96746802  0.47571850  0.30439499
  0.53144503  0.98924699  0.18018851
  0.46855500  0.01075300  0.43018850
  0.53144503  0.98924700  0.06981150
  0.46855500  0.01075300  0.31981150
  0.03253200  0.52428150  0.19560500
  0.96746802  0.47571850  0.44560501
  0.73811709  0.87500000  0.50000000
  0.72681403  0.87500000  0.75000000
  0.27318600  0.62500000  0.50404071
  0.27318600  0.62923193  0.75202036
  0.73505998  0.85772401  0.62500000
  0.73505998  0.89227599  0.87904071
  0.26493999  0.61195593  0.62702036
  0.26493999  0.64227599  0.87904071
  0.75563902  0.61607850  0.56250000
  0.75563902  0.63392150  0.81250000
  0.24436100  0.86607850  0.68750000
  0.24436100  0.88392150  0.93750000
  0.24436100  0.86607850  0.56250000
  0.24436100  0.88392150  0.81250000
  0.75563902  0.61607850  0.68750000
  0.75563902  0.63392150  0.93750000
  0.68832499  0.62500000  0.50000000
  0.68832499  0.62500000  0.75000000
  0.31167501  0.87500000  0.50000000
  0.31167501  0.87500000  0.75000000
  0.81711799  0.63483950  0.62500000
  0.81711799  0.61516050  0.87500000
  0.18288200  0.88483951  0.62500000
  0.18288200  0.86516050  0.87500000
  0.96746802  0.77428150  0.55439500
  0.03253200  0.72571850  0.80439499
  0.46855500  0.73924700  0.68018851
  0.53144503  0.76075300  0.93018851
  0.46855500  0.73924700  0.56981150
  0.53144503  0.76075300  0.81981149
  0.96746802  0.77428150  0.69560500
  0.03253200  0.72571850  0.94560501
  0.03253200  0.52428150  0.55439500
  0.96746802  0.47571850  0.80439499
  0.53144503  0.98924700  0.68018851
  0.46855500  0.01075300  0.93018850
  0.53144503  0.98924700  0.56981150
  0.46855500  0.01075300  0.81981149
  0.03253200  0.52428150  0.69560500
  0.96746802  0.47571850  0.94560501